# LAMMPS data file written by OVITO Basic 3.11.3

64 atoms
1 atom types

0.0 10.937456 xlo xhi
0.0 10.937456 ylo yhi
0.0 10.937456 zlo zhi

Masses

1 28.0855  # Si

Atoms  # atomic

1 1 3.0963 4.99597 5.16494
2 1 9.83343 6.37524 1.96354
3 1 9.71544 9.09699 10.11228
4 1 6.51266 8.58312 5.38469
5 1 1.26492 8.80093 8.74052
6 1 5.58296 2.65383 9.53856
7 1 7.62491 8.50565 7.7282
8 1 8.92312 5.56277 8.86314
9 1 3.22 0.33993 5.66801
10 1 9.46565 10.27546 4.77136
11 1 8.45132 0.76088 1.85099
12 1 4.24557 0.98917 2.70473
13 1 4.81494 5.47584 6.93953
14 1 6.48962 10.88323 4.49825
15 1 8.816 3.21768 0.78297
16 1 10.09544 8.87275 7.25662
17 1 6.18648 9.71895 9.49173
18 1 8.27375 3.55505 9.34346
19 1 2.94267 7.71451 4.74531
20 1 1.01563 9.61239 2.11937
21 1 10.20416 7.45938 4.88347
22 1 8.49766 10.79804 6.98609
23 1 5.19873 7.60519 9.48825
24 1 5.59215 4.73165 4.2776
25 1 10.8665 0.73068 2.24759
26 1 6.05731 2.59389 1.11166
27 1 6.57667 8.31794 0.26752
28 1 4.74968 8.01473 3.52644
29 1 9.69915 1.22898 8.47656
30 1 5.61841 5.03279 1.60611
31 1 8.54028 7.05415 0.03444
32 1 9.94148 4.1691 2.71522
33 1 2.56679 1.92967 7.26816
34 1 0.00975 4.35001 8.18404
35 1 7.2905 3.57503 2.99511
36 1 9.93168 0.8167 10.70514
37 1 2.18775 0.48798 0.93985
38 1 0.69563 1.85007 9.21759
39 1 1.26739 6.07459 0.59909
40 1 2.0761 5.27028 9.34497
41 1 4.37298 9.35976 1.26741
42 1 1.90551 10.91817 9.6747
43 1 1.07379 8.34494 0.19139
44 1 5.58735 2.32555 5.39824
45 1 1.01015 7.18627 2.64819
46 1 10.4249 2.34671 4.1351
47 1 7.55524 4.5962 6.37748
48 1 2.9153 7.28784 9.84677
49 1 6.27659 10.7546 2.32099
50 1 2.83131 1.79282 4.16719
51 1 4.38215 10.93102 9.8025
52 1 2.98228 9.83478 3.4862
53 1 4.06476 9.8476 7.39331
54 1 6.73578 6.50732 8.28095
55 1 7.99901 1.50586 4.35994
56 1 3.9438 3.68405 8.26601
57 1 1.01796 10.83351 7.1625
58 1 9.49275 9.35237 2.60222
59 1 1.5583 4.78304 3.34535
60 1 8.13615 7.59859 2.91537
61 1 3.61522 5.84251 3.0672
62 1 1.04078 3.1555 5.67872
63 1 4.16368 7.73662 6.61982
64 1 7.3009 2.35634 7.2375
