64
Lattice="10.937456 0.0 0.0 0.0 10.937456 0.0 0.0 0.0 10.937456" Properties=species:S:1:pos:R:3:forces:R:3 energy=-297.4085926 stress="0.004769886104182504 -0.004632728941141219 -0.0007063952783400894 -0.004632728941141219 -0.0038536637720484705 0.005268938449360752 -0.0007063952783400894 0.005268938449360752 -0.0007941696211773857" free_energy=-297.52150442 pbc="T T T"
Si       3.09630000       4.99597000       5.16494000      -0.16971700       0.07577300       1.33699700
Si       9.83343000       6.37524000       1.96354000      -0.09108900      -0.51332800      -0.09977500
Si       9.71544000       9.09699000      10.11228000       0.85672900       0.01561300      -0.24745900
Si       6.51266000       8.58312000       5.38469000      -0.55323500       0.12360900       0.18661300
Si       1.26492000       8.80093000       8.74052000      -0.29601600       0.24720600      -0.39052100
Si       5.58296000       2.65383000       9.53856000       0.96764500      -1.08063800       0.38920400
Si       7.62491000       8.50565000       7.72820000       0.67175600       1.66824400      -0.77372100
Si       8.92312000       5.56277000       8.86314000       0.14347600       2.11868900      -0.12442300
Si       3.22000000       0.33993000       5.66801000       0.30795800      -2.00892300       1.84879100
Si       9.46565000      10.27546000       4.77136000       0.11982200       0.21243300       0.34487500
Si       8.45132000       0.76088000       1.85099000       0.11448500       0.10086400      -0.13709400
Si       4.24557000       0.98917000       2.70473000       0.66652700      -0.45395000      -1.67689800
Si       4.81494000       5.47584000       6.93953000       0.52053200      -0.53354400      -0.39290200
Si       6.48962000      10.88323000       4.49825000      -1.56361500      -1.74133000       1.96347600
Si       8.81600000       3.21768000       0.78297000      -0.26407900      -1.00709500       0.16864600
Si      10.09544000       8.87275000       7.25662000       0.10547700      -0.29524600      -0.01867900
Si       6.18648000       9.71895000       9.49173000       1.80840700      -0.23148200      -1.21095300
Si       8.27375000       3.55505000       9.34346000      -0.95692300      -2.82111700       0.78799100
Si       2.94267000       7.71451000       4.74531000      -2.68856600      -1.18022700       0.06706400
Si       1.01563000       9.61239000       2.11937000       0.38708700      -0.68408400       0.72663600
Si      10.20416000       7.45938000       4.88347000      -0.26031800       0.85349400      -0.34911000
Si       8.49766000      10.79804000       6.98609000      -0.32117300       0.08509900      -0.78345800
Si       5.19873000       7.60519000       9.48825000      -1.26037900      -0.39987700       0.24173200
Si       5.59215000       4.73165000       4.27760000      -0.03743100      -0.36268600       1.14903700
Si      10.86650000       0.73068000       2.24759000       0.06264400       1.06070200       0.07168100
Si       6.05731000       2.59389000       1.11166000      -0.26117400      -0.13394300      -0.29118000
Si       6.57667000       8.31794000       0.26752000       0.21300100      -0.82596900       1.90314400
Si       4.74968000       8.01473000       3.52644000       2.00161400       0.63798800      -1.20749300
Si       9.69915000       1.22898000       8.47656000      -2.43650400       0.45532700      -1.58905200
Si       5.61841000       5.03279000       1.60611000      -0.15526000      -0.01931200       0.45482300
Si       8.54028000       7.05415000       0.03444000       0.70928000       0.26636300      -0.75569700
Si       9.94148000       4.16910000       2.71522000      -0.45843300      -0.20577900      -0.65601200
Si       2.56679000       1.92967000       7.26816000      -0.40687800       1.19712000       0.27864800
Si       0.00975000       4.35001000       8.18404000       0.41767900      -0.10416600      -0.41475700
Si       7.29050000       3.57503000       2.99511000       0.76789900      -0.23036300      -0.28520600
Si       9.93168000       0.81670000      10.70514000      -0.40772500      -0.98972900       1.96388600
Si       2.18775000       0.48798000       0.93985000       0.30554200       0.58761000       1.44005400
Si       0.69563000       1.85007000       9.21759000       1.97817000       1.68911000      -0.29959200
Si       1.26739000       6.07459000       0.59909000       0.00347900      -1.01330500      -0.39581300
Si       2.07610000       5.27028000       9.34497000      -0.04305900      -1.69163700      -0.42706800
Si       4.37298000       9.35976000       1.26741000       0.57891600       0.02325400       0.19070000
Si       1.90551000      10.91817000       9.67470000       0.81309600      -0.86770400      -0.35114400
Si       1.07379000       8.34494000       0.19139000      -0.44190400       0.09922700      -0.61946200
Si       5.58735000       2.32555000       5.39824000      -0.30063000       0.28110400      -0.05485200
Si       1.01015000       7.18627000       2.64819000       0.45766200      -0.07114300       1.42849000
Si      10.42490000       2.34671000       4.13510000      -0.44280100      -0.90615200      -0.46682200
Si       7.55524000       4.59620000       6.37748000      -0.57715300       0.47892000      -0.19203300
Si       2.91530000       7.28784000       9.84677000       0.13219700       0.88585300       0.03992900
Si       6.27659000      10.75460000       2.32099000      -0.29569200      -0.32053700      -2.09671000
Si       2.83131000       1.79282000       4.16719000      -1.68898400       2.64800000      -0.22418600
Si       4.38215000      10.93102000       9.80250000      -0.98384200       1.79565200      -0.39743200
Si       2.98228000       9.83478000       3.48620000      -0.03809600       0.22030500      -0.16156000
Si       4.06476000       9.84760000       7.39331000      -0.18257100       0.81181200       0.76393200
Si       6.73578000       6.50732000       8.28095000       0.43662600      -2.00191500      -0.85594000
Si       7.99901000       1.50586000       4.35994000       2.22504700       2.29318300      -0.70462300
Si       3.94380000       3.68405000       8.26601000      -1.01269600       0.78972400       0.08122100
Si       1.01796000      10.83351000       7.16250000      -0.01255500       0.02517800      -0.26282900
Si       9.49275000       9.35237000       2.60222000       0.53630700       1.58422500       0.30378400
Si       1.55830000       4.78304000       3.34535000      -1.70847500      -0.55798800      -0.34024700
Si       8.13615000       7.59859000       2.91537000      -1.18854900      -0.66769200       0.71483100
Si       3.61522000       5.84251000       3.06720000       1.44477100       0.39017700      -0.94477200
Si       1.04078000       3.15550000       5.67872000       0.98647800       0.90151700       0.51197200
Si       4.16368000       7.73662000       6.61982000       1.51124200      -0.43367700       0.53873100
Si       7.30090000       2.35634000       7.23750000      -0.56064500      -0.25191000       0.15064200
